Program Version,EnergyPlus-Windows-64 8.1.0.009, YMD=2017.01.24 12:41
1,5,Environment Title[],Latitude[deg],Longitude[deg],Time Zone[],Elevation[m]
2,6,Day of Simulation[],Month[],Day of Month[],DST Indicator[1=yes 0=no],Hour[],StartMinute[],EndMinute[],DayType
3,3,Cumulative Day of Simulation[],Month[],Day of Month[],DST Indicator[1=yes 0=no],DayType  ! When Daily Report Variables Requested
4,2,Cumulative Days of Simulation[],Month[]  ! When Monthly Report Variables Requested
5,1,Cumulative Days of Simulation[] ! When Run Period Report Variables Requested
81,9,1FLOOR:ZONE1,Zone Lights Electric Energy [J] !Monthly  [Value,Min,Day,Hour,Minute,Max,Day,Hour,Minute]
145,9,1FLOOR:ZONE1,Zone Electric Equipment Electric Energy [J] !Monthly  [Value,Min,Day,Hour,Minute,Max,Day,Hour,Minute]
273,9,1FLOOR:ZONE1,Zone Air System Sensible Heating Energy [J] !Monthly  [Value,Min,Day,Hour,Minute,Max,Day,Hour,Minute]
294,9,1FLOOR:ZONE1,Zone Air System Sensible Cooling Energy [J] !Monthly  [Value,Min,Day,Hour,Minute,Max,Day,Hour,Minute]
End of Data Dictionary
1,84TYPE_2CORE,  37.48, 126.55,   9.00,  70.00
4,31, 1
81,571682383.200003,0.0, 1, 1,30,931078.8, 1, 8,30
145,186309626.813112,18618.749789607, 1, 1,30,292358.7, 1, 8,30
273,7407236603.67687,0.0, 1, 1, 2,10273887.127598, 1, 7,30
294,0.0,0.0, 1, 1, 2,0.0, 1, 1, 2
4,59, 2
81,513955497.600003,0.0, 1, 1,30,931078.8, 1, 8,30
145,167587365.763418,18618.749789607, 1, 1,30,292358.7, 1, 9,30
273,5640516576.63272,0.0, 1,11, 2,11353393.7172144, 4, 7,30
294,0.0,0.0, 1, 1,30,0.0, 1, 1,30
4,90, 3
81,553060807.200003,0.0, 1, 1,30,931078.8, 1, 8,30
145,180944323.787819,18618.749789607, 1, 1,30,292358.7, 1, 9,30
273,3936589973.77097,0.0, 1,11, 2,8278228.7558033,11, 7,30
294,0.0,0.0, 1, 1,30,0.0, 1, 1,30
4,120, 4
81,577268856.000003,0.0, 1, 1,30,931078.8, 1, 8,30
145,187222610.496938,18618.749789607, 1, 1,30,292358.7, 1, 8,30
273,1403335988.36553,0.0, 1, 1, 3,6096149.23355045,16, 7,30
294,0.0,0.0, 1, 1, 3,0.0, 1, 1, 3
4,151, 5
81,553060807.200003,0.0, 1, 1,30,931078.8, 1, 8,30
145,180944323.787819,18618.749789607, 1, 1,30,292358.7, 1, 9,30
273,212160635.84691,0.0, 1, 9,45,2191579.43596367, 1, 6,60
294,0.0,0.0, 1, 1,30,0.0, 1, 1,30
4,181, 6
81,540025704.000003,0.0, 1, 1,30,931078.8, 1, 8,30
145,176492004.446352,18618.749789607, 1, 1,30,292358.7, 1, 9,30
273,0.0,0.0, 1, 1,15,0.0, 1, 1,15
294,51954253.1202365,0.0, 1, 1,15,2177055.12163221,18,16,60
4,212, 7
81,590303959.200004,0.0, 1, 1,30,931078.8, 1, 8,30
145,191674929.838405,18618.749789607, 1, 1,30,292358.7, 1, 8,30
273,58219.6637975501,0.0, 1, 1,15,25566.3102919131,26,18,37
294,287740430.223306,0.0, 1, 1,15,2982936.71947569,23,15,60
4,243, 8
81,553060807.200003,0.0, 1, 1,30,931078.8, 1, 8,30
145,180944323.787819,18618.749789607, 1, 1,30,292358.7, 1, 9,30
273,71115.2494068247,0.0, 1, 1,30,43726.9134729894,11,18,40
294,380398006.239421,0.0, 1, 1,30,3713192.46378269,12,15,60
4,273, 9
81,558647280.000003,0.0, 1, 1,30,931078.8, 1, 8,30
145,181857307.471645,18618.749789607, 1, 1,30,292358.7, 1, 9,30
273,12755786.1087341,0.0, 1, 1,30,1005054.83320241,29, 7,30
294,87699584.894079,0.0, 1, 1,30,2123628.63014983,16,15,30
4,304,10
81,571682383.200003,0.0, 1, 1,30,931078.8, 1, 8,30
145,186309626.813112,18618.749789607, 1, 1,30,292358.7, 1, 8,30
273,548972150.675767,0.0, 1, 1,15,4427224.27357703,28, 7,30
294,0.0,0.0, 1, 1,15,0.0, 1, 1,15
4,334,11
81,540025704.000003,0.0, 1, 1,30,931078.8, 1, 8,30
145,176492004.446352,18618.749789607, 1, 1,30,292358.7, 1, 9,30
273,2963082742.34198,0.0, 1,11, 7,8977524.98305772,19, 7,30
294,0.0,0.0, 1, 1,30,0.0, 1, 1,30
4,365,12
81,590303959.200004,0.0, 1, 1,30,931078.8, 1, 8,30
145,191674929.838405,18618.749789607, 1, 1,30,292358.7, 1, 9,30
273,6197857504.25496,0.0, 1,11, 3,12565995.4418198,16, 7,30
294,0.0,0.0, 1, 1,30,0.0, 1, 1,30
End of Data
 Number of Records Written=          48
